LAMMPS protain data file

         654  atoms
         868  bonds
           0  angles
           0  dihedrals
           0  impropers

           5  atom types
           5  bond types
           0  angle types
           0  dihedral types
           0  improper types

-200.0	200.0	xlo xhi
-200.0	200.0	ylo yhi
-200.0	200.0	zlo zhi

Masses

           1	27.0
           2	14.0
           3	28.0
           4	60.0
           5	60.0

Atoms

           1	1	1	1	0.0	17.5909996	48.10100174	25.41600037
           2	1	1	3	0.0	16.21299934	46.12900162	25.21999931
           3	1	1	4	0.0	18.81299973	47.32899857	25.94000053
           4	1	2	1	0.0	15.43500042	46.625	22.66600037
           5	1	2	3	0.0	16.84700012	46.59000015	20.82299995
           6	1	2	4	0.0	14.41499996	47.51599884	21.9810009
           7	1	3	1	0.0	17.57600021	43.9090004	21.09199905
           8	1	3	3	0.0	18.0909996	41.58300018	20.67200089
           9	1	3	4	0.0	18.98800087	44.03499985	21.70100021
          10	1	4	1	0.0	15.4460001	40.76800156	20.8560009
          11	1	4	3	0.0	14.39799976	41.79299927	19.03300095
          12	1	4	4	0.0	14.48099995	40.43899918	22.00099945
          13	1	5	1	0.0	13.82499981	39.49300003	17.63500023
          14	1	5	3	0.0	12.20400047	41.04499817	16.70299911
          15	1	5	4	0.0	13.69400024	38.00600052	17.21800041
          16	1	6	1	0.0	10.25899982	40.55500031	18.62199974
          17	1	6	3	0.0	9.42700005	42.7840004	18.47500038
          18	1	6	4	0.0	9.33100033	39.91199875	19.68600082
          19	1	7	1	0.0	11.03600025	43.79100037	20.3939991
          20	1	7	3	0.0	10.79399967	45.61700058	18.85199928
          21	1	7	5	0.0	9.56774083	43.90403546	19.94340246
          22	1	8	1	0.0	13.06200027	45.03099823	17.3409996
          23	1	8	3	0.0	11.84700012	45.87200165	15.46399975
          24	1	8	4	0.0	14.48499966	44.66199875	16.90500069
          25	1	9	1	0.0	10.61100006	43.52500153	14.81900024
          26	1	9	3	0.0	8.85999966	44.94300079	14.08899975
          27	1	9	4	0.0	10.18099976	42.06000137	14.60299969
          28	1	10	1	0.0	7.69700003	45.24000168	16.53899956
          29	1	10	3	0.0	7.21999979	47.4620018	15.83600044
          30	1	10	4	0.0	7.16400003	45.04600143	17.94799995
          31	1	11	1	0.0	9.61999989	48.49000168	16.81699944
          32	1	11	3	0.0	9.18799973	50.08499908	15.03199959
          33	1	11	4	0.0	10.92599964	48.63000107	17.61000061
          34	1	12	1	0.0	10.46199989	48.46900177	13.07400036
          35	1	12	3	0.0	8.87899971	49.6230011	11.61699963
          36	1	12	4	0.0	11.18700027	47.32600021	12.36200047
          37	1	13	1	0.0	6.90899992	47.85599899	12.08399963
          38	1	13	3	0.0	5.24700022	49.54499817	11.90600014
          39	1	13	4	0.0	6.10200024	46.60800171	12.29100037
          40	1	14	1	0.0	5.5630002	50.4659996	14.51500034
          41	1	14	3	0.0	5.39099979	52.68000031	13.78899956
          42	1	14	4	0.0	5.5079999	50.41199875	16.06100082
          43	1	15	1	0.0	8.09399986	53.24399948	14.02600002
          44	1	15	3	0.0	9.28999996	54.48099899	12.45499992
          45	1	15	4	0.0	9.01599979	53.60499954	15.25300026
          46	1	16	1	0.0	9.71500015	52.43199921	10.63300037
          47	1	16	3	0.0	11.59300041	53.69599915	9.93000031
          48	1	16	4	0.0	9.00599957	53.24700165	9.54699993
          49	1	17	1	0.0	13.22299957	52.78499985	12.03199959
          50	1	17	3	0.0	12.81299973	51.28900146	13.92199993
          51	1	17	4	0.0	13.36100006	54.26100159	12.34899998
          52	1	18	1	0.0	15.48999977	50.9109993	14.39799976
          53	1	18	3	0.0	15.59700012	52.90599823	15.68799973
          54	1	18	4	0.0	16.99699974	50.56299973	14.21000004
          55	1	19	1	0.0	15.50699997	51.52999878	18.18000031
          56	1	19	3	0.0	17.81399918	52.02899933	17.60000038
          57	1	19	4	0.0	15.46000004	50.3730011	19.14800072
          58	1	20	1	0.0	18.03700066	54.05599976	19.46500015
          59	1	20	3	0.0	20.29299927	54.08399963	19.96899986
          60	1	20	4	0.0	17.72900009	55.15800095	20.5170002
          61	1	21	1	0.0	20.54100037	51.45899963	20.7159996
          62	1	21	3	0.0	22.39599991	50.25099945	19.81999969
          63	1	21	4	0.0	20.17399979	50.39699936	21.74699974
          64	1	22	1	0.0	21.65600014	50.63999939	17.18099976
          65	1	22	3	0.0	22.06800079	52.77299881	16.43199921
          66	1	22	4	0.0	20.62599945	50.20199966	16.08699989
          67	1	23	1	0.0	24.57799911	52.19900131	15.25899982
          68	1	23	3	0.0	25.39500046	50.27600098	14.26900005
          69	1	23	4	0.0	25.77099991	52.77099991	16.05900002
          70	1	24	1	0.0	26.03800011	51.3769989	11.79699993
          71	1	24	3	0.0	28.08699989	51.51100159	13.1239996
          72	1	24	4	0.0	25.92000008	52.18999863	10.49800014
          73	1	25	1	0.0	29.44499969	49.76599884	11.37100029
          74	1	25	3	0.0	31.38599968	51.06900024	11.93999958
          75	1	25	4	0.0	29.81299973	48.67399979	10.37800026
          76	1	26	1	0.0	30.92099953	53.09500122	10.11800003
          77	1	26	3	0.0	31.93099976	54.34000015	11.8920002
          78	1	26	4	0.0	30.57600021	53.82400131	8.84200001
          79	1	27	1	0.0	29.47999954	54.99399948	13.09500027
          80	1	27	3	0.0	30.88500023	55.23899841	15.05500031
          81	1	27	4	0.0	28.02400017	54.94300079	13.60900021
          82	1	28	1	0.0	30.88199997	52.4469986	15.50899982
          83	1	28	3	0.0	33.10499954	52.86399841	16.4810009
          84	1	28	4	0.0	30.45599937	50.98500061	15.46500015
          85	1	29	1	0.0	34.3370018	52.63199997	13.97200012
          86	1	29	3	0.0	35.83100128	54.16799927	14.95499992
          87	1	29	4	0.0	34.65499878	52.34899902	12.51799965
          88	1	30	1	0.0	34.02500153	56.38100052	14.31200027
          89	1	30	3	0.0	34.97200012	57.43600082	16.20700073
          90	1	30	4	0.0	32.91500092	57.27700043	13.83699989
          91	1	31	1	0.0	33.75999832	55.84899902	18.08200073
          92	1	31	3	0.0	35.15999985	55.04800034	19.75699997
          93	1	31	4	0.0	32.54000092	55.39300156	18.89100075
          94	1	32	1	0.0	36.78499985	53.60800171	18.16699982
          95	1	32	3	0.0	37.43199921	51.45899963	18.83600044
          96	1	32	5	0.0	37.36622753	53.52960898	16.74305145
          97	1	33	1	0.0	35.34000015	50.21500015	17.39599991
          98	1	33	3	0.0	36.49000168	49.98899841	15.31299973
          99	1	33	4	0.0	33.95600128	49.95000076	16.83399963
         100	1	34	1	0.0	37.88299942	47.61399841	16.2840004
         101	1	34	3	0.0	37.38299942	45.72900009	17.57099915
         102	1	34	4	0.0	39.29800034	47.57300186	16.87400055
         103	1	35	1	0.0	35.9620018	44.43000031	15.42300034
         104	1	35	3	0.0	36.36299896	42.63899994	16.91399956
         105	1	35	4	0.0	35.35400009	44.00500107	14.09599972
         106	1	36	1	0.0	38.91799927	42.20000076	16.18499947
         107	1	36	3	0.0	39.61299896	41.4640007	18.3239994
         108	1	36	4	0.0	40.27399826	41.98199844	15.50599957
         109	1	37	1	0.0	39.26100159	43.72100067	19.69599915
         110	1	37	3	0.0	38.15800095	42.81800079	21.64299965
         111	1	37	4	0.0	39.53300095	45.15499878	20.08099937
         112	1	38	1	0.0	35.64099884	42.91699982	20.4829998
         113	1	38	3	0.0	34.72700119	43.72100067	22.5189991
         114	1	38	5	0.0	34.82365671	43.67979418	19.423898
         115	1	39	1	0.0	35.52199936	46.38499832	22.18600082
         116	1	39	3	0.0	34.30400085	48.45600128	22.41500092
         117	1	39	4	0.0	36.83599854	47.21900177	22.15600014
         118	1	40	1	0.0	32.09400177	47.70600128	21.0510006
         119	1	40	3	0.0	31.10700035	49.43600082	22.39299965
         120	1	40	4	0.0	31.05800056	47.00299835	20.17399979
         121	1	41	1	0.0	30.59300041	47.84899902	24.53499985
         122	1	41	3	0.0	30.95499992	49.51200104	26.20499992
         123	1	41	4	0.0	30.12199974	46.59899902	25.25900078
         124	1	42	1	0.0	33.70100021	49.6609993	25.7670002
         125	1	42	3	0.0	33.79499817	52.02500153	25.89800072
         126	1	42	4	0.0	35.18500137	49.33599854	25.61499977
         127	1	43	1	0.0	33.35900116	52.38399887	23.18300056
         128	1	43	3	0.0	31.84000015	54.17499924	22.59199905
         129	1	43	4	0.0	34.13999939	52.26499939	21.83499908
         130	1	44	1	0.0	29.5510006	52.56999969	22.90099907
         131	1	44	3	0.0	28.05599976	50.69599915	23.20000076
         132	1	44	4	0.0	29.20700073	52.54600143	21.41399956
         133	1	45	1	0.0	27.97599983	51.04399872	25.95700073
         134	1	45	3	0.0	25.98699951	52.17100143	25.10499954
         135	1	45	4	0.0	28.38699913	51.55500031	27.32900047
         136	1	46	1	0.0	24.47999954	49.80699921	25.33499908
         137	1	46	3	0.0	22.93300056	49.5890007	23.61499977
         138	1	46	5	0.0	24.62939338	48.27433777	25.31982042
         139	1	47	1	0.0	24.85700035	49.95199966	21.52199936
         140	1	47	3	0.0	25.90299988	47.75799942	21.47599983
         141	1	47	4	0.0	25.86300087	50.86500168	20.82600021
         142	1	48	1	0.0	24.59199905	47.13000107	19.00600052
         143	1	48	3	0.0	24.2140007	48.64500046	17.17499924
         144	1	48	4	0.0	23.28899956	46.31999969	19.12199974
         145	1	49	1	0.0	25.62000084	47.14300156	15.31700039
         146	1	49	3	0.0	23.63599968	45.83100128	14.83300018
         147	1	49	4	0.0	26.71800041	46.2159996	14.70100021
         148	1	50	1	0.0	22.59600067	47.55799866	13.03899956
         149	1	50	3	0.0	22.72900009	49.90000153	12.52999973
         150	1	50	5	0.0	23.38796862	46.92660426	11.87894444
         151	1	51	1	0.0	21.21100044	49.45500183	10.09300041
         152	1	51	3	0.0	21.39500046	50.15299988	7.85400009
         153	1	51	5	0.0	20.18771779	48.44815067	9.53555684
         154	1	52	1	0.0	23.72500038	48.63299942	7.31500006
         155	1	52	3	0.0	22.06200027	47.07400131	6.53000021
         156	1	52	4	0.0	25.04199982	47.87599945	7.53999996
         157	1	53	1	0.0	22.52199936	47.56600189	3.8499999
         158	1	53	3	0.0	24.11400032	45.78900146	4.26399994
         159	1	53	4	0.0	22.93300056	48.1570015	2.48099995
         160	1	54	1	0.0	22.16799927	43.81399918	3.44400001
         161	1	54	3	0.0	20.95800018	43.77799988	1.43200004
         162	1	54	4	0.0	21.07500076	43.06700134	4.25600004
         163	1	55	1	0.0	23.06599998	42.75899887	-0.067
         164	1	55	3	0.0	22.40699959	41.28900146	-1.745
         165	1	55	4	0.0	24.43000031	43.02000046	-0.72500002
         166	1	56	1	0.0	21.4109993	39.31100082	0.054
         167	1	56	3	0.0	21.58099937	38.29700089	-2.17600012
         168	1	56	4	0.0	19.99399948	39.76300049	-0.37099999
         169	1	57	1	0.0	24.38400078	37.82300186	-1.75699997
         170	1	57	3	0.0	24.4109993	36.10599899	-3.32500005
         171	1	57	4	0.0	25.80999947	37.9659996	-1.21099997
         172	1	58	1	0.0	23.06399918	34.21900177	-1.77999997
         173	1	58	3	0.0	21.23900032	33.18999863	-2.78600001
         174	1	58	4	0.0	23.06699944	33.29299927	-0.56800002
         175	1	59	1	0.0	19.61700058	35.47399902	-2.98300004
         176	1	59	3	0.0	17.49099922	34.39500046	-2.76799989
         177	1	59	5	0.0	19.40745271	36.71162235	-2.09082394
         178	1	60	1	0.0	17.78199959	33.74200058	-0.069
         179	1	60	3	0.0	15.50899982	33.96500015	0.514
         180	1	60	4	0.0	18.50799942	33.15299988	1.14999998
         181	1	61	1	0.0	15.48400021	36.71900177	0.74599999
         182	1	61	3	0.0	15.51900005	37.31999969	-1.61699998
         183	1	61	4	0.0	15.83600044	37.95100021	1.60500002
         184	1	62	1	0.0	12.77900028	37.6570015	-1.72300005
         185	1	62	3	0.0	13.22900009	39.97700119	-1.52900004
         186	1	62	4	0.0	11.31400013	37.46099854	-1.30499995
         187	1	63	1	0.0	13.68700027	40.38600159	-4.15999985
         188	1	63	3	0.0	11.57499981	40.22999954	-5.19099998
         189	1	63	5	0.0	13.23463989	41.0898846	-2.86712754
         190	1	64	1	0.0	11.58399963	43.01300049	-5.92000008
         191	1	64	3	0.0	13.11200047	44.84999847	-5.63600016
         192	1	64	4	0.0	10.36499977	43.24000168	-5.04300022
         193	1	65	1	0.0	12.31700039	46.13999939	-7.96299982
         194	1	65	3	0.0	10.68999958	47.23099899	-6.55800009
         195	1	65	4	0.0	11.84000015	46.36399841	-9.40799999
         196	1	66	1	0.0	12.67300034	49.04299927	-5.49100018
         197	1	66	3	0.0	13.02000046	49.47800064	-3.1170001
         198	1	66	5	0.0	14.16325687	49.38851436	-5.66807297
         199	1	67	1	0.0	13.22599983	46.79399872	-2.45099998
         200	1	67	3	0.0	15.43400002	46.11000061	-2.76099992
         201	1	67	4	0.0	12.56999969	45.37799835	-2.36100006
         202	1	68	1	0.0	16.38199997	47.21099854	-0.40799999
         203	1	68	3	0.0	15.17300034	46.61600113	1.63300002
         204	1	68	4	0.0	17.25300026	48.47200012	-0.354
         205	1	69	1	0.0	17.36800003	45.11899948	2.65499997
         206	1	69	3	0.0	19.47800064	46.36000061	3.04099989
         207	1	69	4	0.0	17.67099953	43.61000061	2.48000002
         208	1	70	1	0.0	19.1590004	46.08000183	5.8579998
         209	1	70	3	0.0	18.23500061	44.2159996	7.03800011
         210	1	70	4	0.0	18.73800087	47.45600128	6.42399979
         211	1	71	1	0.0	20.26600075	44.06700134	8.87899971
         212	1	71	3	0.0	21.20700073	45.74000168	10.1260004
         213	1	71	4	0.0	21.35899925	43.04199982	8.51200008
         214	1	72	1	0.0	20.86700058	44.4679985	12.61999989
         215	1	72	3	0.0	20.5529995	42.27000046	13.21899986
         216	1	72	4	0.0	19.81100082	45.22800064	13.39400005
         217	1	73	1	0.0	22.54000092	42.39300156	15.28899956
         218	1	73	3	0.0	20.8939991	43.26800156	16.75600052
         219	1	73	4	0.0	23.81800079	42.72600174	16.04000092
         220	1	74	1	0.0	20.19099998	40.65100098	17.74200058
         221	1	74	3	0.0	21.93000031	39.16400146	18.71299934
         222	1	74	4	0.0	19.04000092	39.87400055	17.09000015
         223	1	75	1	0.0	20.82999992	39.4980011	21.34199905
         224	1	75	3	0.0	22.91300011	39.14699936	22.44300079
         225	1	75	4	0.0	20.72599983	37.94900131	21.37800026
         226	1	76	1	0.0	24.12400055	41.36600113	21.54899979
         227	1	76	3	0.0	23.32699966	43.14300156	22.93499947
         228	1	76	4	0.0	24.79000092	42.20399857	20.43000031
         229	1	77	1	0.0	25.27700043	42.82799911	24.91300011
         230	1	77	3	0.0	26.89999962	44.5870018	25.04199982
         231	1	77	4	0.0	24.9260006	42.25799942	26.28000069
         232	1	78	1	0.0	29.11199951	42.99900055	24.78800011
         233	1	78	3	0.0	29.64699936	40.77000046	24.18400002
         234	1	78	4	0.0	29.5	43.41799927	26.22299957
         235	1	79	1	0.0	32.27600098	41.26300049	23.50499916
         236	1	79	3	0.0	31.70599937	42.07099915	21.31900024
         237	1	79	5	0.0	33.35363576	42.35166588	23.34653485
         238	1	80	1	0.0	32.54999924	39.77099991	20.01199913
         239	1	80	3	0.0	30.24300003	39.06600189	20.30999947
         240	1	80	4	0.0	33.3409996	38.53099823	19.5529995
         241	1	81	1	0.0	29.56599998	39.56999969	17.64599991
         242	1	81	3	0.0	30.06100082	37.15800095	17.52599907
         243	1	81	4	0.0	29.5720005	40.27199936	16.26399994
         244	1	82	1	0.0	27.23900032	36.61500168	17.65800095
         245	1	82	3	0.0	27.00799942	37.01499939	15.23700047
         246	1	82	4	0.0	26.15800095	36.55699921	18.75
         247	1	83	1	0.0	25.35199928	34.85599899	14.89099979
         248	1	83	3	0.0	23.39599991	34.65399933	13.62300014
         249	1	83	4	0.0	25.48200035	33.32500076	14.66100025
         250	1	84	1	0.0	21.88299942	36.39699936	15.27499962
         251	1	84	3	0.0	22.31200027	38.68099976	15.02099991
         252	1	84	4	0.0	21.07099915	36.50099945	16.59600067
         253	1	85	1	0.0	20.50699997	38.90999985	12.85099983
         254	1	85	3	0.0	18.33499908	37.98799896	12.30000019
         255	1	85	4	0.0	21.32600021	38.95000076	11.55099964
         256	1	86	1	0.0	17.22100067	40.59999847	11.95300007
         257	1	86	3	0.0	18.38500023	42.10800171	10.39700031
         258	1	86	4	0.0	16.4279995	41.44800186	12.97099972
         259	1	87	1	0.0	16.73800087	41.41799927	8.21100044
         260	1	87	3	0.0	14.38500023	41.48799896	8.08899975
         261	1	87	4	0.0	16.9659996	40.3030014	7.18900013
         262	1	88	1	0.0	14.25500011	44.08399963	7.1500001
         263	1	88	3	0.0	15.32699966	45.39899826	5.59499979
         264	1	88	4	0.0	13.85499954	45.06299973	8.30700016
         265	1	89	1	0.0	13.08199978	45.36399841	3.82299995
         266	1	89	3	0.0	11.92500019	47.1780014	4.94099998
         267	1	89	4	0.0	12.24300003	44.48699951	2.87700009
         268	1	90	1	0.0	12.27799988	48.83800125	2.64400005
         269	1	90	3	0.0	10.13700008	49.89300156	2.92700005
         270	1	90	4	0.0	12.95600033	49.49100113	1.44200003
         271	1	91	1	0.0	8.60900021	47.67399979	2.39400005
         272	1	91	3	0.0	7.13000011	46.28300095	3.64400005
         273	1	91	4	0.0	7.99499989	47.05899811	1.15499997
         274	1	92	1	0.0	8.82199955	46.20600128	5.94199991
         275	1	92	3	0.0	7.77400017	44.29499817	6.95499992
         276	1	92	4	0.0	7.6880002	47.09400177	6.63600016
         277	1	93	1	0.0	9.18299961	42.42900085	5.39699984
         278	1	93	3	0.0	11.31400013	42.89799881	6.37900019
         279	1	93	4	0.0	9.54199982	41.59199905	4.19000006
         280	1	94	1	0.0	11.12199974	41.05599976	8.40299988
         281	1	94	3	0.0	10.51799965	38.79600143	8.54899979
         282	1	94	4	0.0	10.73700047	41.64599991	9.77700043
         283	1	95	1	0.0	13.18500042	37.89599991	8.54899979
         284	1	95	3	0.0	14.70600033	38.9090004	10.10900021
         285	1	95	4	0.0	13.86699963	37.4659996	7.2750001
         286	1	96	1	0.0	15.60400009	36.5019989	11.11900043
         287	1	96	3	0.0	16.02799988	34.51599884	9.86400032
         288	1	96	4	0.0	15.11299992	36.10599899	12.51000023
         289	1	97	1	0.0	18.67399979	34.28300095	10.99300003
         290	1	97	3	0.0	19.51799965	34.98400116	13.08899975
         291	1	97	4	0.0	19.73800087	34.4980011	9.90400028
         292	1	98	1	0.0	20.18199921	32.48899841	14.06400013
         293	1	98	3	0.0	22.19400024	31.19400024	14.56400013
         294	1	98	4	0.0	19.31699944	31.77599907	15.09399986
         295	1	99	1	0.0	22.74799919	30.65099907	12.04699993
         296	1	99	3	0.0	24.29599953	30.62199974	10.17500019
         297	1	99	4	0.0	22.17700005	29.3239994	11.53999996
         298	1	100	1	0.0	24.9659996	33.28699875	10.41499996
         299	1	100	3	0.0	25.53100014	32.85499954	8.11600018
         300	1	100	4	0.0	26.39599991	32.86199951	10.82400036
         301	1	101	1	0.0	22.82099915	33.66799927	7.36199999
         302	1	101	3	0.0	22.54100037	32.56100082	5.31400013
         303	1	101	4	0.0	23.58699989	34.75999832	6.54799986
         304	1	102	1	0.0	22.53300095	29.99699974	6.32499981
         305	1	102	3	0.0	20.66399956	29.5529995	4.91200018
         306	1	102	4	0.0	23.0739994	28.77000046	7.03800011
         307	1	103	1	0.0	18.8239994	30.02799988	6.88399982
         308	1	103	3	0.0	18.61499977	31.81800079	8.4630003
         309	1	103	4	0.0	18.1970005	28.7140007	7.43599987
         310	1	104	1	0.0	16.15999985	32.65299988	7.32000017
         311	1	104	3	0.0	14.28600025	31.35700035	6.93100023
         312	1	104	4	0.0	16.06100082	33.67599869	6.12699986
         313	1	105	1	0.0	12.68700027	32.67100143	8.83100033
         314	1	105	3	0.0	12.27000046	34.95100021	9.2869997
         315	1	105	4	0.0	12.50399971	32.10599899	10.27400017
         316	1	106	1	0.0	9.91899967	35.19200134	7.92000008
         317	1	106	3	0.0	8.57299995	34.34199905	9.75199986
         318	1	106	4	0.0	8.95699978	35.15999985	6.74399996
         319	1	107	1	0.0	8.6960001	36.79999924	11.11800003
         320	1	107	3	0.0	6.93599987	38.03900146	12.06700039
         321	1	107	4	0.0	9.68700027	36.90499878	12.30000019
         322	1	108	1	0.0	6.57999992	39.79199982	9.90299988
         323	1	108	3	0.0	7.47599983	39.6269989	7.26900005
         324	1	108	4	0.0	6.8130002	41.19100189	10.4119997
         325	2	109	1	0.0	-5.46000004	16.82699966	-4.07399988
         326	2	109	3	0.0	-3.80200005	18.56599998	-4.375
         327	2	109	4	0.0	-5.40199995	16.15699959	-2.70000005
         328	2	110	1	0.0	-5.50400019	20.47599983	-2.94300008
         329	2	110	3	0.0	-5.6789999	20.40600014	-0.50700003
         330	2	110	4	0.0	-6.83900023	21.19799995	-3.13700008
         331	2	111	1	0.0	-3.09100008	21.15200043	-0.077
         332	2	111	3	0.0	-1.49600005	22.75699997	-0.92400002
         333	2	111	4	0.0	-2.20900011	19.91200066	0.259
         334	2	112	1	0.0	-1.50999999	24.21800041	1.61899996
         335	2	112	3	0.0	-2.17499995	23.88999939	3.9059999
         336	2	112	4	0.0	-2.10599995	25.62000084	1.523
         337	2	113	1	0.0	0.132	22.9829998	4.85599995
         338	2	113	3	0.0	1.82000005	22.90500069	6.50299978
         339	2	113	4	0.0	0.048	21.43799973	4.90700006
         340	2	114	1	0.0	3.30100012	24.99600029	5.42000008
         341	2	114	3	0.0	2.01600003	26.89299965	6.14599991
         342	2	114	4	0.0	4.37200022	25.33699989	4.35200024
         343	2	115	1	0.0	3.89199996	27.63400078	8.05099964
         344	2	115	3	0.0	2.71700001	29.66799927	7.38999987
         345	2	115	4	0.0	5.17199993	27.79800034	8.90600014
         346	2	116	1	0.0	4.36800003	30.40099907	5.38500023
         347	2	116	3	0.0	2.36400008	31.37700081	4.49300003
         348	2	116	4	0.0	5.63100004	30.6060009	4.53399992
         349	2	117	1	0.0	1.65999997	29.06200027	3.1559999
         350	2	117	3	0.0	-0.56199998	29.93799973	3.39599991
         351	2	117	5	0.0	1.70468883	30.56508861	2.82384275
         352	2	118	1	0.0	-0.94599998	28.80200005	5.85099983
         353	2	118	3	0.0	-2.14599991	30.69799995	6.48000002
         354	2	118	4	0.0	-1.10300004	27.63800049	6.89499998
         355	2	119	1	0.0	0.092	32.06499863	7.52199984
         356	2	119	3	0.0	-1.17400002	33.93899918	6.70499992
         357	2	119	4	0.0	1.403	32.49700165	8.17099953
         358	2	120	1	0.0	-0.17900001	33.93999863	4.20599985
         359	2	120	3	0.0	-2.38000011	34.79899979	3.62400007
         360	2	120	4	0.0	0.648	33.76300049	2.9230001
         361	2	121	1	0.0	-3.57999992	32.34700012	3.43700004
         362	2	121	3	0.0	-5.57200003	33.5530014	4.13800001
         363	2	121	4	0.0	-3.75600004	30.79599953	3.329
         364	2	122	1	0.0	-5.1079998	33.22600174	6.82299995
         365	2	122	3	0.0	-6.24900007	35.3409996	6.77299976
         366	2	122	4	0.0	-4.61100006	32.7879982	8.21700001
         367	2	123	1	0.0	-3.84200001	36.7840004	6.48699999
         368	2	123	3	0.0	-5.33099985	38.33499908	5.38800001
         369	2	123	4	0.0	-2.40300012	37.15599823	6.40799999
         370	2	124	1	0.0	-5.20599985	37.13899994	2.898
         371	2	124	3	0.0	-7.40100002	37.70999908	2.2980001
         372	2	124	4	0.0	-4.52099991	36.48699951	1.66999996
         373	2	125	1	0.0	-8.36400032	35.1570015	2.89700007
         374	2	125	3	0.0	-10.31499958	34.97299957	4.01499987
         375	2	125	4	0.0	-8.4630003	33.81299973	2.16000009
         376	2	126	1	0.0	-9.27299976	35.24599838	6.66099977
         377	2	126	3	0.0	-11.15100002	33.7879982	7.34100008
         378	2	126	4	0.0	-10.18099976	36.51100159	6.60099983
         379	2	127	1	0.0	-9.86100006	31.50799942	6.59700012
         380	2	127	3	0.0	-7.75899982	30.94000053	5.65999985
         381	2	127	4	0.0	-11.02499962	31.18099976	5.65999985
         382	2	128	1	0.0	-7.9000001	28.26000023	6.67700005
         383	2	128	3	0.0	-9.2840004	27.66900063	4.76000023
         384	2	128	4	0.0	-8.02000046	27.0720005	7.6329999
         385	2	129	1	0.0	-7.18499994	26.47900009	3.36999989
         386	2	129	3	0.0	-8.44499969	24.8029995	4.66900015
         387	2	129	4	0.0	-5.77400017	26.07999992	3.04200006
         388	2	130	1	0.0	-9.72299957	23.78000069	2.523
         389	2	130	3	0.0	-10.07900047	21.5529995	2.86199999
         390	2	130	4	0.0	-10.39299965	23.60300064	1.153
         391	2	131	1	0.0	-7.47300005	20.82799911	3.40700006
         392	2	131	3	0.0	-6.92999983	19.63500023	5.42000008
         393	2	131	4	0.0	-6.05600023	20.67300034	2.84100008
         394	2	132	1	0.0	-8.24300003	21.2670002	7.13199997
         395	2	132	3	0.0	-10.57499981	21.40800095	7.08599997
         396	2	132	4	0.0	-7.86100006	22.61199951	7.84499979
         397	2	133	1	0.0	-10.91600037	19.54700089	9.22299957
         398	2	133	3	0.0	-9.55300045	19.34000015	11.1789999
         399	2	133	4	0.0	-11.34399986	18.1989994	8.64700031
         400	2	134	1	0.0	-11.59500027	19.82600021	12.96399975
         401	2	134	3	0.0	-11.81000042	17.50200081	12.74800014
         402	2	134	4	0.0	-12.77900028	20.53499985	13.65499973
         403	2	135	1	0.0	-11.05500031	16.91799927	15.41399956
         404	2	135	3	0.0	-12.52799988	15.07199955	14.92700005
         405	2	135	4	0.0	-10.62699986	16.95599937	16.875
         406	2	136	1	0.0	-14.82999992	16.38999939	15.62899971
         407	2	136	3	0.0	-15.89299965	14.96199989	14.09599972
         408	2	136	4	0.0	-15.8210001	17.40200043	16.20499992
         409	2	137	1	0.0	-15.20100021	16.38500023	11.86600018
         410	2	137	3	0.0	-15.06299973	14.26900005	10.82199955
         411	2	137	4	0.0	-14.91699982	17.49399948	10.8739996
         412	2	138	1	0.0	-12.35700035	13.86400032	11.57900047
         413	2	138	3	0.0	-12.84200001	11.49100018	11.63000011
         414	2	138	4	0.0	-10.91899967	14.13599968	12.05700016
         415	2	139	1	0.0	-13.85700035	11.62199974	14.22900009
         416	2	139	3	0.0	-15.39900017	9.97500038	13.5170002
         417	2	139	4	0.0	-13.93700027	12.02400017	15.69299984
         418	2	140	1	0.0	-17.15999985	11.72599983	12.34200001
         419	2	140	3	0.0	-17.6590004	10.03600025	10.7670002
         420	2	140	4	0.0	-17.99900055	12.89700031	11.90799999
         421	2	141	1	0.0	-15.25599957	10.31499958	9.34200001
         422	2	141	3	0.0	-14.28299999	8.20499992	8.83199978
         423	2	141	4	0.0	-14.27900028	11.15600014	8.5
         424	2	142	1	0.0	-13.71700001	7.44099998	11.36299992
         425	2	142	3	0.0	-11.64799976	6.49100018	12.07400036
         426	2	142	5	0.0	-14.25591127	7.61643316	12.79492095
         427	2	143	1	0.0	-10.44200039	8.92199993	12.61999989
         428	2	143	3	0.0	-11.23099995	8.71700001	14.82699966
         429	2	143	4	0.0	-10.00899982	10.39000034	12.54500008
         430	2	144	1	0.0	-9.00500011	7.07800007	15.59799957
         431	2	144	3	0.0	-6.6869998	6.98199987	15.08899975
         432	2	144	4	0.0	-9.23700047	5.59399986	15.89000034
         433	2	145	1	0.0	-6.01100016	9.03100014	16.90299988
         434	2	145	3	0.0	-3.81100011	8.19499969	16.46500015
         435	2	145	4	0.0	-5.9829998	10.01299953	18.07099915
         436	2	146	1	0.0	-4.28000021	5.98199987	18.36800003
         437	2	146	3	0.0	-2.96499991	4.33900023	17.23999977
         438	2	146	4	0.0	-4.72599983	5.25	19.65099907
         439	2	147	1	0.0	-4.58599997	4.21799994	14.97299957
         440	2	147	3	0.0	-3.09100008	4.36499977	13.13500023
         441	2	147	4	0.0	-5.91800022	3.87599993	14.28600025
         442	2	148	1	0.0	-2.80200005	7.16400003	13.19900036
         443	2	148	3	0.0	-2.65899992	7.11399984	10.81000042
         444	2	148	5	0.0	-3.75994045	8.33004364	13.50607121
         445	2	149	1	0.0	-5.37900019	6.72300005	10.40499973
         446	2	149	3	0.0	-6.78399992	7.60099983	8.70100021
         447	2	149	4	0.0	-6.47900009	5.62200022	10.57299995
         448	2	150	1	0.0	-6.33099985	10.27299976	9.41100025
         449	2	150	3	0.0	-7.32399988	10.61699963	7.25400019
         450	2	150	4	0.0	-5.68100023	11.59000015	9.95800018
         451	2	151	1	0.0	-5.04300022	9.81499958	5.86399984
         452	2	151	3	0.0	-6.17399979	8.85900021	4.03200006
         453	2	151	4	0.0	-3.55999994	9.89799976	5.5539999
         454	2	152	1	0.0	-7.19799995	6.65700006	5.55299997
         455	2	152	3	0.0	-9.28199959	6.78100014	4.37799978
         456	2	152	4	0.0	-7.34899998	5.546	6.58099985
         457	2	153	1	0.0	-10.50899982	8.31499958	6.40199995
         458	2	153	3	0.0	-11.86499977	10.0539999	5.59000015
         459	2	153	4	0.0	-11.02200031	8.20699978	7.85599995
         460	2	154	1	0.0	-9.73900032	11.85299969	5.12799978
         461	2	154	3	0.0	-7.5079999	12.88300037	4.77699995
         462	2	154	4	0.0	-10.03199959	12.83199978	6.22200012
         463	2	155	1	0.0	-7.25400019	11.72399998	2.352
         464	2	155	3	0.0	-7.83500004	13.98799992	1.63600004
         465	2	155	4	0.0	-7.56899977	10.82900047	1.14499998
         466	2	156	1	0.0	-5.33199978	14.96399975	1.93200004
         467	2	156	3	0.0	-5.35699987	17.16699982	2.72600007
         468	2	156	5	0.0	-4.0095529	14.7110749	2.67950474
         469	2	157	1	0.0	-6.72300005	16.5909996	5.12200022
         470	2	157	3	0.0	-4.94999981	15.63099957	6.54699993
         471	2	157	4	0.0	-8.0880003	16.31100082	5.71799994
         472	2	158	1	0.0	-5.0	17.84300041	8.26299953
         473	2	158	3	0.0	-7.05100012	18.92099953	8.96700001
         474	2	158	4	0.0	-3.88400006	18.88599968	8.21199989
         475	2	159	1	0.0	-6.50199986	18.52499962	11.65999985
         476	2	159	3	0.0	-5.10599995	20.47299957	11.79300022
         477	2	159	4	0.0	-6.11600018	17.81900024	12.9989996
         478	2	160	1	0.0	-7.11399984	22.24799919	12.07400036
         479	2	160	3	0.0	-9.39700031	22.59399986	11.68000031
         480	2	160	5	0.0	-7.05038091	22.01123649	13.59436086
         481	2	161	1	0.0	-9.55500031	24.97699928	13.02400017
         482	2	161	3	0.0	-11.17800045	25.64999962	14.60900021
         483	2	161	5	0.0	-8.77764534	26.23468341	13.45475521
         484	2	162	1	0.0	-10.23900032	23.92399979	16.58099937
         485	2	162	3	0.0	-8.82900047	25.69799995	17.29000092
         486	2	162	4	0.0	-9.80000019	22.64699936	17.35400009
         487	2	163	1	0.0	-10.4989996	26.45199966	19.36899948
         488	2	163	3	0.0	-9.0	24.96899986	20.625
         489	2	163	4	0.0	-11.80200005	26.72699928	20.15399933
         490	2	164	1	0.0	-7.14799976	26.97400093	21.1590004
         491	2	164	3	0.0	-7.7670002	28.90200043	22.38400078
         492	2	164	4	0.0	-5.90999985	27.53499985	20.45999908
         493	2	165	1	0.0	-7.71999979	27.6779995	24.90299988
         494	2	165	3	0.0	-6.73899984	29.05500031	26.57699966
         495	2	165	4	0.0	-8.41800022	26.66600037	25.86100006
         496	2	166	1	0.0	-4.25099993	29.11100006	25.50600052
         497	2	166	3	0.0	-3.95300007	29.87800026	27.78000069
         498	2	166	4	0.0	-4.45599985	30.56800079	25.0739994