ITEM: TIMESTEP
0
ITEM: NUMBER OF ATOMS
654
ITEM: BOX BOUNDS ss ss ss
-1.8039008550000002e+01 4.0314006259999999e+01
3.8359919300000000e+00 5.7476008819999997e+01
-9.4480079900000007e+00 3.0851008820000001e+01
ITEM: ATOMS id type x y z
1 1 17.59099959999999995830 48.10100174000000095020 25.41600036999999900900
2 3 16.21299933999999964840 46.12900161999999681939 25.21999930999999861569
3 4 18.81299973000000136381 47.32899857000000309881 25.94000052999999894610
4 1 15.43500041999999972120 46.62500000000000000000 22.66600036999999900900
5 3 16.84700012000000057810 46.59000015000000161081 20.82299994999999981360
6 4 14.41499995999999939045 47.51599884000000173501 21.98100090000000150781
7 1 17.57600021000000012350 43.90900039999999648899 21.09199904999999830579
8 3 18.09099959999999995830 41.58300017999999909080 20.67200088999999962880
9 4 18.98800087000000047510 44.03499984999999838919 21.70100021000000012350
10 1 15.44600009999999912225 40.76800156000000185941 20.85600090000000150781
11 3 14.39799975999999936960 41.79299927000000280941 19.03300095000000169421
12 4 14.48099994999999928780 40.43899918000000326401 22.00099944999999834749
13 1 13.82499980999999955600 39.49300002999999747999 17.63500022999999927720
14 3 12.20400047000000043340 41.04499816999999950440 16.70299911000000037120
15 4 13.69400023999999937985 38.00600052000000061980 17.21800040999999836799
16 1 10.25899981999999965865 40.55500030999999694359 18.62199973999999969010
17 3 9.42700005000000018640 42.78400039999999648899 18.47500038000000088800
18 4 9.33100033000000017580 39.91199875000000218961 19.68600082000000028870
19 1 11.03600025000000073305 43.79100036999999900900 20.39399909999999849219
20 3 10.79399966999999982420 45.61700058000000268521 18.85199928000000113570
21 5 9.56774082999999997412 43.90403546000000289951 19.94340246000000149706
22 1 13.06200027000000041255 45.03099823000000156981 17.34099959999999995830
23 3 11.84700012000000057810 45.87200165000000140481 15.46399974999999926695
24 4 14.48499965999999972155 44.66199875000000218961 16.90500069000000138431
25 1 10.61100006000000028905 43.52500152999999727399 14.81900023999999937985
26 3 8.85999965999999972155 44.94300078999999925600 14.08899974999999926695
27 4 10.18099976000000062015 42.06000137000000194121 14.60299969000000075425
28 1 7.69700002999999988162 45.24000167999999888480 16.53899956000000059930
29 3 7.21999979000000013940 47.46200180000000301561 15.83600043999999940070
30 4 7.16400003000000040743 45.04600142999999690119 17.94799994999999981360
31 1 9.61999989000000077510 48.49000167999999888480 16.81699944000000002120
32 3 9.18799972999999958745 50.08499908000000289121 15.03199958999999985565
33 4 10.92599964000000056785 48.63000106999999871960 17.61000061000000016520
34 1 10.46199988999999952455 48.46900176999999843019 13.07400035999999943215
35 3 8.87899971000000043375 49.62300110000000330501 11.61699963000000046520
36 4 11.18700027000000041255 47.32600020999999657079 12.36200046999999990760
37 1 6.90899992000000029435 47.85599899000000334581 12.08399962999999921465
38 3 5.24700022000000032563 49.54499816999999950440 11.90600013999999973180
39 4 6.10200023999999974222 46.60800171000000347021 12.29100037000000078535
40 1 5.56300020000000028375 50.46599960000000351101 14.51500034000000027845
41 3 5.39099979000000040230 52.68000030999999694359 13.78899956000000059930
42 4 5.50799989999999972667 50.41199875000000218961 16.06100082000000028870
43 1 8.09399986000000026820 53.24399947999999938020 14.02600001999999967950
44 3 9.28999995999999939045 54.48099899000000334581 12.45499992000000055725
45 4 9.01599979000000040230 53.60499954000000144561 15.25300026000000030990
46 1 9.71500014999999983445 52.43199921000000074400 10.63300036999999953480
47 3 11.59300041000000014435 53.69599914999999867860 9.93000031000000049630
48 4 9.00599957000000017615 53.24700165000000140481 9.54699993000000013410
49 1 13.22299957000000070195 52.78499984999999838919 12.03199958999999985565
50 3 12.81299972999999958745 51.28900146000000148661 13.92199993000000013410
51 4 13.36100006000000028905 54.26100158999999933940 12.34899998000000032050
52 1 15.48999977000000072280 50.91099930000000028940 14.39799975999999936960
53 3 15.59700012000000057810 52.90599823000000156981 15.68799972999999958745
54 4 16.99699973999999969010 50.56299973000000136381 14.21000004000000060955
55 1 15.50699997000000074365 51.52999877999999966960 18.18000031000000049630
56 3 17.81399917999999971130 52.02899932999999776939 17.60000038000000088800
57 4 15.46000004000000060955 50.37300110000000330501 19.14800071999999886430
58 1 18.03700066000000035160 54.05599975999999884380 19.46500015000000161081
59 3 20.29299926999999925670 54.08399963000000099100 19.96899986000000026820
60 4 17.72900008999999954540 55.15800095000000169421 20.51700019999999824449
61 1 20.54100036999999900900 51.45899963000000099100 20.71599959999999995830
62 3 22.39599991000000045460 50.25099945000000190021 19.81999968999999950370
63 4 20.17399978999999987650 50.39699936000000235481 21.74699973999999969010
64 1 21.65600013999999973180 50.63999938999999983480 17.18099975999999884380
65 3 22.06800078999999925600 52.77299880999999714959 16.43199921000000074400
66 4 20.62599944999999834749 50.20199965999999847099 16.08699989000000130090
67 1 24.57799911000000037120 52.19900130999999987580 15.25899981999999965865
68 3 25.39500045999999855439 50.27600097999999917420 14.26900005000000071220
69 4 25.77099991000000045460 52.77099991000000045460 16.05900001999999915370
70 1 26.03800010999999869910 51.37699889999999669499 11.79699993000000013410
71 3 28.08699989000000130090 51.51100158999999933940 13.12399959999999943250
72 4 25.92000008000000121910 52.18999862999999805879 10.49800014000000025760
73 1 29.44499968999999950370 49.76599884000000173501 11.37100028999999956625
74 3 31.38599968000000117740 51.06900024000000115620 11.93999958000000027880
75 4 29.81299973000000136381 48.67399979000000342921 10.37800026000000030990
76 1 30.92099952999999956660 53.09500122000000033040 10.11800002999999925635
77 3 31.93099975999999884380 54.34000015000000161081 11.89200020000000002085
78 4 30.57600021000000012350 53.82400130999999987580 8.84200000999999957685
79 1 29.47999954000000144561 54.99399947999999938020 13.09500026999999988675
80 3 30.88500022999999927720 55.23899841000000066060 15.05500031000000049630
81 4 28.02400017000000076450 54.94300078999999925600 13.60900020999999959770
82 1 30.88199996999999896730 52.44699860000000057880 15.50899981999999965865
83 3 33.10499954000000144561 52.86399841000000066060 16.48100090000000150781
84 4 30.45599937000000068110 50.98500061000000016520 15.46500014999999983445
85 1 34.33700180000000301561 52.63199997000000252001 13.97200012000000057810
86 3 35.83100128000000239581 54.16799927000000280941 14.95499992000000055725
87 4 34.65499877999999966960 52.34899902000000082580 12.51799965000000014470
88 1 34.02500152999999727399 56.38100052000000061980 14.31200027000000041255
89 3 34.97200011999999702539 57.43600081999999673599 16.20700073000000074330
90 4 32.91500091999999710879 57.27700043000000107440 13.83699988999999952455
91 1 33.75999832000000111520 55.84899902000000082580 18.08200073000000074330
92 3 35.15999984999999838919 55.04800034000000152901 19.75699996999999896730
93 4 32.54000091999999710879 55.39300156000000185941 18.89100074999999989700
94 1 36.78499984999999838919 53.60800171000000347021 18.16699982000000090920
95 3 37.43199921000000074400 51.45899963000000099100 18.83600043999999940070
96 5 37.36622753000000329848 53.52960897999999900776 16.74305144999999939159
97 1 35.34000015000000161081 50.21500015000000161081 17.39599991000000045460
98 3 36.49000167999999888480 49.98899841000000066060 15.31299972999999958745
99 4 33.95600128000000239581 49.95000076000000177601 16.83399963000000099100
100 1 37.88299941999999731479 47.61399841000000066060 16.28400040000000004170
101 3 37.38299941999999731479 45.72900008999999954540 17.57099914999999867860
102 4 39.29800034000000152901 47.57300185999999797559 16.87400055000000165251
103 1 35.96200180000000301561 44.43000030999999694359 15.42300033999999975265
104 3 36.36299895999999876040 42.63899993999999793459 16.91399956000000059930
105 4 35.35400008999999954540 44.00500106999999871960 14.09599972000000001060
106 1 38.91799927000000280941 42.20000076000000177601 16.18499947000000105390
107 3 39.61299895999999876040 41.46400069999999971060 18.32399940000000171381
108 4 40.27399825999999904980 41.98199843999999814059 15.50599957000000017615
109 1 39.26100158999999933940 43.72100067000000223061 19.69599914999999867860
110 3 38.15800095000000169421 42.81800078999999925600 21.64299965000000014470
111 4 39.53300095000000169421 45.15499877999999966960 20.08099937000000068110
112 1 35.64099884000000173501 42.91699982000000090920 20.48299980000000175551
113 3 34.72700119000000285041 43.72100067000000223061 22.51899909999999849219
114 5 34.82365671000000162394 43.67979418000000180200 19.42389800000000121827
115 1 35.52199936000000235481 46.38499832000000111520 22.18600082000000028870
116 3 34.30400085000000132140 48.45600128000000239581 22.41500092000000066150
117 4 36.83599853999999851339 47.21900176999999843019 22.15600013999999973180
118 1 32.09400176999999843019 47.70600128000000239581 21.05100059999999828619
119 3 31.10700034999999985530 49.43600081999999673599 22.39299965000000014470
120 4 31.05800055999999997880 47.00299834999999859519 20.17399978999999987650
121 1 30.59300040999999836799 47.84899902000000082580 24.53499984999999838919
122 3 30.95499991999999878090 49.51200104000000123960 26.20499991999999878090
123 4 30.12199973999999969010 46.59899902000000082580 25.25900078000000092970
124 1 33.70100020999999657079 49.66099930000000028940 25.76700019999999824449
125 3 33.79499816999999950440 52.02500152999999727399 25.89800071999999886430
126 4 35.18500137000000194121 49.33599853999999851339 25.61499977000000072280
127 1 33.35900115999999826499 52.38399886999999921500 23.18300055999999997880
128 3 31.84000015000000161081 54.17499923999999822399 22.59199904999999830579
129 4 34.13999938999999983480 52.26499938999999983480 21.83499907999999933850
130 1 29.55100059999999828619 52.56999969000000305641 22.90099907000000101220
131 3 28.05599975999999884380 50.69599914999999867860 23.20000076000000177601
132 4 29.20700073000000074330 52.54600142999999690119 21.41399956000000059930
133 1 27.97599982999999923550 51.04399871999999760419 25.95700073000000074330
134 3 25.98699951000000041290 52.17100142999999690119 25.10499954000000144561
135 4 28.38699912999999952490 51.55500030999999694359 27.32900047000000043340
136 1 24.47999954000000144561 49.80699921000000074400 25.33499907999999933850
137 3 22.93300055999999997880 49.58900069999999971060 23.61499977000000072280
138 5 24.62939337999999978024 48.27433777000000247881 25.31982041999999921700
139 1 24.85700034999999985530 49.95199965999999847099 21.52199935999999880210
140 3 25.90299987999999942190 47.75799941999999731479 21.47599982999999923550
141 4 25.86300087000000047510 50.86500167999999888480 20.82600021000000012350
142 1 24.59199904999999830579 47.13000106999999871960 19.00600052000000061980
143 3 24.21400069999999971060 48.64500045999999855439 17.17499923999999822399
144 4 23.28899956000000059930 46.31999969000000305641 19.12199973999999969010
145 1 25.62000083999999944240 47.14300156000000185941 15.31700039000000046485
146 3 23.63599968000000117740 45.83100128000000239581 14.83300018000000086715
147 4 26.71800040999999836799 46.21599960000000351101 14.70100021000000012350
148 1 22.59600066999999867789 47.55799866000000264421 13.03899956000000059930
149 3 22.72900008999999954540 49.90000152999999727399 12.52999973000000011325
150 5 23.38796861999999876502 46.92660425999999773694 11.87894443999999971595
151 1 21.21100043999999940070 49.45500183000000049560 10.09300041000000014435
152 3 21.39500045999999855439 50.15299988000000297461 7.85400009000000043358
153 5 20.18771779000000066162 48.44815066999999686459 9.53555683999999992295
154 1 23.72500038000000088800 48.63299941999999731479 7.31500006000000002615
155 3 22.06200026999999863619 47.07400130999999987580 6.53000020999999986060
156 4 25.04199982000000090920 47.87599945000000190021 7.53999996000000027863
157 1 22.52199935999999880210 47.56600189000000256101 3.84999989999999980839
158 3 24.11400031999999882260 45.78900146000000148661 4.26399993999999971095
159 4 22.93300055999999997880 48.15700149999999979400 2.48099995000000017598
160 1 22.16799926999999925670 43.81399918000000326401 3.44400000999999988949
161 3 20.95800017999999909080 43.77799988000000297461 1.43200003999999991855
162 4 21.07500076000000177601 43.06700133999999735579 4.25600003999999998427
163 1 23.06599998000000084630 42.75899886999999921500 -0.06700000000000000400
164 3 22.40699959000000163201 41.28900146000000148661 -1.74500000000000010658
165 4 24.43000031000000049630 43.02000045999999855439 -0.72500001999999996727
166 1 21.41099930000000028940 39.31100081999999673599 0.05399999999999999939
167 3 21.58099937000000068110 38.29700088999999962880 -2.17600011999999987111
168 4 19.99399947999999938020 39.76300049000000313981 -0.37099999000000000171
169 1 24.38400078000000092970 37.82300185999999797559 -1.75699997000000007752
170 3 24.41099930000000028940 36.10599899000000334581 -3.32500004999999987376
171 4 25.80999947000000105390 37.96599960000000351101 -1.21099997000000003666
172 1 23.06399917999999971130 34.21900176999999843019 -1.77999996999999998692
173 3 21.23900031999999882260 33.18999862999999805879 -2.78600000999999997120
174 4 23.06699944000000002120 33.29299927000000280941 -0.56800002000000004987
175 1 19.61700057999999913250 35.47399902000000082580 -2.98300003999999985282
176 3 17.49099921999999907030 34.39500045999999855439 -2.76799989000000001838
177 5 19.40745271000000116146 36.71162234999999895990 -2.09082393999999993639
178 1 17.78199959000000163201 33.74200058000000268521 -0.06900000000000000577
179 3 15.50899981999999965865 33.96500015000000161081 0.51400000000000001243
180 4 18.50799942000000086750 33.15299988000000297461 1.14999998000000003273
181 1 15.48400020999999959770 36.71900176999999843019 0.74599998999999994620
182 3 15.51900005000000071220 37.31999969000000305641 -1.61699997999999989240
183 4 15.83600043999999940070 37.95100020999999657079 1.60500002000000008273
184 1 12.77900027999999998940 37.65700149999999979400 -1.72300005000000000521
185 3 13.22900008999999954540 39.97700119000000285041 -1.52900003999999989368
186 4 11.31400013000000015495 37.46099853999999851339 -1.30499995000000001966
187 1 13.68700027000000041255 40.38600158999999933940 -4.15999985000000016555
188 3 11.57499980999999955600 40.22999954000000144561 -5.19099997999999995812
189 5 13.23463989000000040619 41.08988459999999776073 -2.86712753999999980792
190 1 11.58399962999999921465 43.01300049000000313981 -5.92000008000000033093
191 3 13.11200046999999990760 44.84999847000000272601 -5.63600016000000003658
192 4 10.36499977000000072280 43.24000167999999888480 -5.04300021999999970035
193 1 12.31700039000000046485 46.13999938999999983480 -7.96299982000000028393
194 3 10.68999958000000027880 47.23099899000000334581 -6.55800009000000017068
195 4 11.84000014999999983445 46.36399841000000066060 -9.40799999000000042315
196 1 12.67300033999999975265 49.04299927000000280941 -5.49100018000000034135
197 3 13.02000046000000033075 49.47800063999999764519 -3.11700009999999982924
198 5 14.16325686999999966531 49.38851436000000205695 -5.66807296999999987719
199 1 13.22599982999999923550 46.79399871999999760419 -2.45099998000000018905
200 3 15.43400001999999915370 46.11000061000000016520 -2.76099992000000016290
201 4 12.56999968999999950370 45.37799834999999859519 -2.36100005999999984496
202 1 16.38199996999999896730 47.21099853999999851339 -0.40799998999999997906
203 3 15.17300033999999975265 46.61600113000000078500 1.63300002000000010760
204 4 17.25300026000000030990 48.47200011999999702539 -0.35399999999999998135
205 1 17.36800003000000103270 45.11899947999999938020 2.65499996999999998692
206 3 19.47800064000000119790 46.36000061000000016520 3.04099989000000014983
207 4 17.67099952999999956660 43.61000061000000016520 2.48000001999999986069
208 1 19.15900040000000004170 46.08000183000000049560 5.85799979999999997915
209 3 18.23500061000000016520 44.21599960000000351101 7.03800010999999958727
210 4 18.73800087000000047510 47.45600128000000239581 6.42399978999999987650
211 1 20.26600074999999989700 44.06700133999999735579 8.87899971000000043375
212 3 21.20700073000000074330 45.74000167999999888480 10.12600040000000056750
213 4 21.35899925000000010300 43.04199982000000090920 8.51200007999999996855
214 1 20.86700057999999913250 44.46799850000000020600 12.61999989000000077510
215 3 20.55299949999999853389 42.27000045999999855439 13.21899986000000026820
216 4 19.81100082000000028870 45.22800063999999764519 13.39400005000000071220
217 1 22.54000092000000066150 42.39300156000000185941 15.28899956000000059930
218 3 20.89399909999999849219 43.26800156000000185941 16.75600052000000061980
219 4 23.81800078999999925600 42.72600174000000095020 16.04000092000000066150
220 1 20.19099998000000084630 40.65100097999999917420 17.74200057999999913250
221 3 21.93000031000000049630 39.16400146000000148661 18.71299933999999964840
222 4 19.04000092000000066150 39.87400054999999809979 17.09000015000000161081
223 1 20.82999991999999878090 39.49800110000000330501 21.34199904999999830579
224 3 22.91300010999999869910 39.14699936000000235481 22.44300078999999925600
225 4 20.72599982999999923550 37.94900130999999987580 21.37800026000000030990
226 1 24.12400055000000165251 41.36600113000000078500 21.54899978999999987650
227 3 23.32699965999999847099 43.14300156000000185941 22.93499947000000105390
228 4 24.79000092000000066150 42.20399857000000309881 20.43000031000000049630
229 1 25.27700043000000107440 42.82799911000000037120 24.91300010999999869910
230 3 26.89999961999999911200 44.58700180000000301561 25.04199982000000090920
231 4 24.92600059999999828619 42.25799941999999731479 26.28000069000000138431
232 1 29.11199951000000041290 42.99900054999999809979 24.78800010999999869910
233 3 29.64699935999999880210 40.77000045999999855439 24.18400001999999915370
234 4 29.50000000000000000000 43.41799927000000280941 26.22299956999999892560
235 1 32.27600097999999917420 41.26300049000000313981 23.50499916000000055760
236 3 31.70599937000000068110 42.07099914999999867860 21.31900024000000115620
237 5 33.35363576000000307431 42.35166587999999876502 23.34653485000000117111
238 1 32.54999923999999822399 39.77099991000000045460 20.01199912999999952490
239 3 30.24300003000000103270 39.06600189000000256101 20.30999947000000105390
240 4 33.34099960000000351101 38.53099823000000156981 19.55299949999999853389
241 1 29.56599998000000084630 39.56999969000000305641 17.64599991000000045460
242 3 30.06100082000000028870 37.15800095000000169421 17.52599907000000101220
243 4 29.57200050000000146611 40.27199936000000235481 16.26399994000000148731
244 1 27.23900031999999882260 36.61500167999999888480 17.65800095000000169421
245 3 27.00799942000000086750 37.01499938999999983480 15.23700046999999990760
246 4 26.15800095000000169421 36.55699921000000074400 18.75000000000000000000
247 1 25.35199928000000113570 34.85599899000000334581 14.89099979000000040230
248 3 23.39599991000000045460 34.65399932999999776939 13.62300014000000025760
249 4 25.48200034999999985530 33.32500076000000177601 14.66100025000000073305
250 1 21.88299942000000086750 36.39699936000000235481 15.27499961999999911200
251 3 22.31200026999999863619 38.68099975999999884380 15.02099991000000045460
252 4 21.07099914999999867860 36.50099945000000190021 16.59600066999999867789
253 1 20.50699996999999896730 38.90999984999999838919 12.85099982999999923550
254 3 18.33499907999999933850 37.98799895999999876040 12.30000019000000044400
255 4 21.32600021000000012350 38.95000076000000177601 11.55099964000000056785
256 1 17.22100066999999867789 40.59999847000000272601 11.95300006999999986590
257 3 18.38500022999999927720 42.10800171000000347021 10.39700030999999924575
258 4 16.42799949999999853389 41.44800185999999797559 12.97099972000000001060
259 1 16.73800087000000047510 41.41799927000000280941 8.21100043999999940070
260 3 14.38500022999999927720 41.48799895999999876040 8.08899974999999926695
261 4 16.96599959999999995830 40.30300139999999942120 7.18900013000000015495
262 1 14.25500010999999922490 44.08399963000000099100 7.15000009999999974752
263 3 15.32699966000000024735 45.39899825999999904980 5.59499979000000013940
264 4 13.85499953999999966925 45.06299973000000136381 8.30700015999999941130
265 1 13.08199978000000029965 45.36399841000000066060 3.82299994999999981360
266 3 11.92500019000000044400 47.17800139999999942120 4.94099997999999995812
267 4 12.24300002999999925635 44.48699950999999686019 2.87700009000000012094
268 1 12.27799987999999942190 48.83800124999999781039 2.64400004999999982402
269 3 10.13700007999999996855 49.89300156000000185941 2.92700005000000018640
270 4 12.95600033000000017580 49.49100113000000078500 1.44200002999999998821
271 1 8.60900020999999959770 47.67399979000000342921 2.39400004999999982402
272 3 7.13000011000000011308 46.28300095000000169421 3.64400004999999982402
273 4 7.99499988999999988692 47.05899810999999743899 1.15499996999999998692
274 1 8.82199954999999924610 46.20600128000000239581 5.94199990999999982932
275 3 7.77400016999999987632 44.29499816999999950440 6.95499991999999966907
276 4 7.68800020000000028375 47.09400176999999843019 6.63600016000000003658
277 1 9.18299960999999953515 42.42900085000000132140 5.39699984000000032580
278 3 11.31400013000000015495 42.89799880999999714959 6.37900019000000018110
279 4 9.54199981999999913285 41.59199904999999830579 4.19000006000000002615
280 1 11.12199973999999969010 41.05599975999999884380 8.40299987999999942190
281 3 10.51799965000000014470 38.79600142999999690119 8.54899978999999987650
282 4 10.73700046999999990760 41.64599991000000045460 9.77700042999999929805
283 1 13.18500041999999972120 37.89599991000000045460 8.54899978999999987650
284 3 14.70600033000000017580 38.90900039999999648899 10.10900020999999959770
285 4 13.86699963000000046520 37.46599960000000351101 7.27500009999999974752
286 1 15.60400008999999954540 36.50199889999999669499 11.11900042999999982385
287 3 16.02799987999999942190 34.51599884000000173501 9.86400032000000059895
288 4 15.11299992000000003145 36.10599899000000334581 12.51000022999999927720
289 1 18.67399978999999987650 34.28300095000000169421 10.99300002999999925635
290 3 19.51799965000000014470 34.98400115999999826499 13.08899974999999926695
291 4 19.73800087000000047510 34.49800110000000330501 9.90400027999999998940
292 1 20.18199921000000074400 32.48899841000000066060 14.06400013000000015495
293 3 22.19400024000000115620 31.19400024000000115620 14.56400013000000015495
294 4 19.31699944000000002120 31.77599907000000101220 15.09399986000000026820
295 1 22.74799919000000159031 30.65099907000000101220 12.04699993000000013410
296 3 24.29599952999999956660 30.62199973999999969010 10.17500019000000044400
297 4 22.17700005000000018640 29.32399940000000171381 11.53999995999999939045
298 1 24.96599959999999995830 33.28699875000000218961 10.41499995999999939045
299 3 25.53100013999999973180 32.85499954000000144561 8.11600018000000034135
300 4 26.39599991000000045460 32.86199950999999686019 10.82400035999999943215
301 1 22.82099914999999867860 33.66799927000000280941 7.36199999000000016025
302 3 22.54100036999999900900 32.56100081999999673599 5.31400013000000015495
303 4 23.58699989000000130090 34.75999832000000111520 6.54799986000000000530
304 1 22.53300095000000169421 29.99699973999999969010 6.32499980999999955600
305 3 20.66399956000000059930 29.55299949999999853389 4.91200017999999971607
306 4 23.07399940000000171381 28.77000045999999855439 7.03800010999999958727
307 1 18.82399940000000171381 30.02799987999999942190 6.88399981999999965865
308 3 18.61499977000000072280 31.81800078999999925600 8.46300029999999914310
309 4 18.19700050000000146611 28.71400069999999971060 7.43599986999999984505
310 1 16.15999984999999838919 32.65299988000000297461 7.32000017000000013923
311 3 14.28600025000000073305 31.35700034999999985530 6.93100023000000042828
312 4 16.06100082000000028870 33.67599869000000012420 6.12699985999999974240
313 1 12.68700027000000041255 32.67100142999999690119 8.83100033000000017580
314 3 12.27000046000000033075 34.95100020999999657079 9.28699970000000085690
315 4 12.50399971000000043375 32.10599899000000334581 10.27400017000000076450
316 1 9.91899966999999982420 35.19200133999999735579 7.92000008000000033093
317 3 8.57299994999999981360 34.34199904999999830579 9.75199985999999974240
318 4 8.95699978000000029965 35.15999984999999838919 6.74399996000000001573
319 1 8.69600009999999912225 36.79999923999999822399 11.11800002999999925635
320 3 6.93599986999999984505 38.03900146000000148661 12.06700039000000046485
321 4 9.68700027000000041255 36.90499877999999966960 12.30000019000000044400
322 1 6.57999991999999966907 39.79199982000000090920 9.90299987999999942190
323 3 7.47599983000000012368 39.62699889999999669499 7.26900004999999982402
324 4 6.81300020000000028375 41.19100189000000256101 10.41199970000000085690
325 1 -5.46000003999999972137 16.82699965999999847099 -4.07399987999999968480
326 3 -3.80200005000000018640 18.56599998000000084630 -4.37500000000000000000
327 4 -5.40199995000000043888 16.15699959000000163201 -2.70000004999999987376
328 1 -5.50400019000000018110 20.47599982999999923550 -2.94300008000000001829
329 3 -5.67899989999999998957 20.40600013999999973180 -0.50700003000000004594
330 4 -6.83900022999999990247 21.19799994999999981360 -3.13700007999999996855
331 1 -3.09100008000000014974 21.15200043000000107440 -0.07699999999999999900
332 3 -1.49600004999999991462 22.75699996999999896730 -0.92400002000000003299
333 4 -2.20900010999999985017 19.91200066000000035160 0.25900000000000000799
334 1 -1.50999999000000006966 24.21800040999999836799 1.61899996000000001573
335 3 -2.17499995000000012624 23.88999938999999983480 3.90599989999999985812
336 4 -2.10599995000000017598 25.62000083999999944240 1.52299999999999990941
337 1 0.13200000000000000622 22.98299980000000175551 4.85599995000000017598
338 3 1.82000004999999998034 22.90500069000000138431 6.50299977999999967437
339 4 0.04800000000000000100 21.43799973000000136381 4.90700005999999966377
340 1 3.30100011999999987111 24.99600029000000134261 5.42000008000000033093
341 3 2.01600002999999983189 26.89299965000000014470 6.14599990999999956642
342 4 4.37200022000000032563 25.33699989000000130090 4.35200023999999974222
343 1 3.89199996000000014718 27.63400078000000092970 8.05099964000000056785
344 3 2.71700001000000002094 29.66799926999999925670 7.38999986999999958215
345 4 5.17199993000000013410 27.79800034000000152901 8.90600013999999973180
346 1 4.36800003000000014453 30.40099907000000101220 5.38500023000000016538
347 3 2.36400007999999983710 31.37700080999999840969 4.49300003000000014453
348 4 5.63100003999999998427 30.60600090000000150781 4.53399992000000029435
349 1 1.65999997000000010239 29.06200026999999863619 3.15599989999999985812
350 3 -0.56199997999999995457 29.93799973000000136381 3.39599991000000001051
351 5 1.70468883000000004380 30.56508861000000010222 2.82384274999999984601
352 1 -0.94599997999999996257 28.80200005000000018640 5.85099983000000012368
353 3 -2.14599991000000001051 30.69799994999999981360 6.48000002000000030478
354 4 -1.10300003999999995941 27.63800048999999958710 6.89499997999999969522
355 1 0.09199999999999999845 32.06499862999999805879 7.52199984000000032580
356 3 -1.17400002000000003299 33.93899918000000326401 6.70499991999999966907
357 4 1.40300000000000002487 32.49700165000000140481 8.17099952999999956660
358 1 -0.17900000999999998719 33.93999862999999805879 4.20599985000000042845
359 3 -2.38000011000000011308 34.79899979000000342921 3.62400007000000012880
360 4 0.64800000000000002043 33.76300049000000313981 2.92300009999999987897
361 1 -3.57999992000000011316 32.34700011999999702539 3.43700004000000003401
362 3 -5.57200002999999988162 33.55300139999999942120 4.13800000999999983975
363 4 -3.75600003999999998427 30.79599952999999956660 3.32900000000000018119
364 1 -5.10799979999999997915 33.22600174000000095020 6.82299994999999981360
365 3 -6.24900007000000012880 35.34099960000000351101 6.77299976000000025778
366 4 -4.61100006000000028905 32.78799819999999698439 8.21700000999999957685
367 1 -3.84200001000000002094 36.78400039999999648899 6.48699999000000016025
368 3 -5.33099985000000042845 38.33499908000000289121 5.38800000999999983975
369 4 -2.40300012000000018375 37.15599823000000156981 6.40799999000000042315
370 1 -5.20599985000000042845 37.13899993999999793459 2.89800000000000013145
371 3 -7.40100001999999967950 37.70999908000000289121 2.29800009999999987897
372 4 -4.52099990999999956642 36.48699950999999686019 1.66999995999999995000
373 1 -8.36400032000000059895 35.15700149999999979400 2.89700006999999981616
374 3 -10.31499958000000027880 34.97299956999999892560 4.01499986999999958215
375 4 -8.46300029999999914310 33.81299973000000136381 2.16000009000000003923
376 1 -9.27299975999999936960 35.24599838000000318061 6.66099977000000009753
377 3 -11.15100001999999967950 33.78799819999999698439 7.34100007999999970565
378 4 -10.18099976000000062015 36.51100158999999933940 6.60099983000000012368
379 1 -9.86100006000000028905 31.50799942000000086750 6.59700011999999968992
380 3 -7.75899981999999965865 30.94000052999999894610 5.65999985000000016555
381 4 -11.02499961999999911200 31.18099975999999884380 5.65999985000000016555
382 1 -7.90000009999999974752 28.26000022999999927720 6.67700005000000018640
383 3 -9.28400040000000004170 27.66900062999999931890 4.76000023000000016538
384 4 -8.02000046000000033075 27.07200050000000146611 7.63299989999999972667
385 1 -7.18499993999999997385 26.47900008999999954540 3.36999988999999988692